file 22381733 1702746102                                        
version 3
run General-0-20231216-18:00:47-13788
attr configname General
attr datetime 20231216-18:00:47
attr datetimef 20231216-180047
attr experiment General
attr inifile omnetpp.ini
attr iterationvars ""
attr iterationvarsd ""
attr iterationvarsf ""
attr measurement ""
attr network SuperMarket
attr processid 13788
attr repetition 0
attr replication #0
attr resultdir results
attr runnumber 0
attr seedset 0
config network SuperMarket
config sim-time-limit "60s * 60 * 60 * 12"
config SuperMarket.C 4
config SuperMarket.checkout.p 0.5
config SuperMarket.checkout.classifier.K 50
config SuperMarket.checkout.queues.serviceTime 3s
config SuperMarket.source.interArrivalTime exponential(10s)
config SuperMarket.source.numberOfItems int(exponential(50))
config SuperMarket.checkout.classifier.policy "\"jtsq\""

vector 0 SuperMarket.checkout.queues[0] queueLength:vector ETV
attr interpolationmode sample-hold
attr recordingmode vector
attr title "queue length"
vector 1 SuperMarket.checkout.queues[1] queueLength:vector ETV
attr interpolationmode sample-hold
attr recordingmode vector
attr title "queue length"
vector 2 SuperMarket.checkout.queues[2] queueLength:vector ETV
attr interpolationmode sample-hold
attr recordingmode vector
attr title "queue length"
vector 3 SuperMarket.checkout.queues[3] queueLength:vector ETV
attr interpolationmode sample-hold
attr recordingmode vector
attr title "queue length"
vector 4 SuperMarket.checkout.localSink[1] lifeTime:vector ETV
attr interpolationmode none
attr recordingmode vector
attr title "lifetime of arrived jobs"
attr unit s
vector 5 SuperMarket.globalSink lifeTime:vector ETV
attr interpolationmode none
attr recordingmode vector
attr title "lifetime of arrived customers"
attr unit s
vector 6 SuperMarket.checkout.localSink[0] lifeTime:vector ETV
attr interpolationmode none
attr recordingmode vector
attr title "lifetime of arrived jobs"
attr unit s
vector 7 SuperMarket.checkout.localSink[2] lifeTime:vector ETV
attr interpolationmode none
attr recordingmode vector
attr title "lifetime of arrived jobs"
attr unit s
vector 8 SuperMarket.checkout.localSink[3] lifeTime:vector ETV
attr interpolationmode none
attr recordingmode vector
attr title "lifetime of arrived jobs"
attr unit s
1	2309 1125355 0 282420 0 675173.508430058967 32768 0 10901 178170280 1293420635912
0	1127664 1125692 0 283797 0 678434.228412713592 32768 0 10949 179013304 1304191746756
5	2253356 1488976 45 352738 136.055844410089 844750.055844410089 32768 81 687174.28568158 7641516223.1836 2.4881716572044e+15
1	3742332 1194438 282426 566439 675181.853913589663 1359627.349452147106 32768 10902 21605 532973944 8982375630692
0	4936770 1194811 283801 570039 678439.944348930497 1368519.503246293686 32768 10948 21741 536542880 9102433759028
2	6131581 1163889 0 637299 0 1530250.243984676014 32768 0 22615 370388426 5586500856924
3	7295470 1163960 0 639273 0 1534881.305339383291 32768 0 22691 371231660 5614969351508
5	8459430 1530583 352740 703603 844750.055844410089 1688851.944348930497 32768 421865.63799668 1378584.1501752 23038608851.242 1.7548628246745e+16
4	9990013 1514217 44 847571 136.055844410089 2033512.055844410089 32768 81 1014198.9880515 16598477422.587 1.1226288486009e+16
6	11504230 1514429 53 849338 154.944348930497 2037691.944348930497 32768 138 1012931.4796417 16787671247.257 1.1458025092411e+16
1	13018659 1210021 566445 852249 1359632.792591581881 2044872.079086334979 32768 21606 32393 884068118 24172329344800
0	14228680 1210007 570040 853621 1368523.944348930497 2048209.944348930497 32768 21740 32446 888068210 24383914233608
5	15438687 1541771 703605 1055940 1688851.944348930497 2532988.055844410089 32768 843533.03511827 2066634.6905545 38261143701.972 4.7373199498544e+16
0	16980458 980121 853626 1080624 2048213.531381556465 2591981.345041074552 26287 32446 41200 968143227 35824716403835
1	17960579 984451 852255 1080633 2044882.168471783267 2591989.359658581662 26407 32394 41200 971591963 35918139424711
2	18945030 842923 637311 1080630 1530272.493814219985 2591985.840921262944 22731 22616 38288 692690893 21575059696649
3	19787953 839660 639279 1080600 1534893.951768439218 2591931.031301775741 22642 22692 38287 690805971 21535609837433
4	20627613 424496 847583 1080608 2033527.055844410089 2591956.055844410089 8987 1014142.5283886 1290736.3803653 10361986499.752 1.2005241174025e+16
5	21052109 110717 1055958 1080627 2533060.944348930497 2591983.958745045658 2312 1257610.8517126 2114852.375258 3264953430.7893 4.8276414766844e+15
6	21162826 421733 849362 1080620 2037757.944348930497 2591977.944348930497 8927 1012964.55766 1285677.6260464 10282149160.42 1.1898918503814e+16
7	21584559 399598 62 1080626 193.958745045658 2591983.958745045658 8605 186 2112826.7934897 9093447797.8163 1.2809685545101e+16
8	21984157 397574 164 1080566 421.466830853266 2591857.466830853266 8561 333 2114852.375258 9082490079.3539 1.2839482077817e+16

