file 17647288 1702504682                                        
version 3
run General-0-20231213-22:57:52-17756
attr configname General
attr datetime 20231213-22:57:52
attr datetimef 20231213-225752
attr experiment General
attr inifile omnetpp.ini
attr iterationvars ""
attr iterationvarsd ""
attr iterationvarsf ""
attr measurement ""
attr network SuperMarket
attr processid 17756
attr repetition 0
attr replication #0
attr resultdir results
attr runnumber 0
attr seedset 0
config network SuperMarket
config sim-time-limit "60s * 60 * 60 * 12"
config **.checkout.C 4
config **.checkout.p 0.5
config **.classifier.K 50
config **.queues.serviceTime 3s
config **.source.interArrivalTime exponential(10s)
config **.source.numberOfItems int(exponential(50))
config **.classifier.policy "\"equallylikely\""

vector 0 SuperMarket.checkout.queues[0] queueLength:vector ETV
attr interpolationmode sample-hold
attr recordingmode vector
attr title "queue length"
vector 1 SuperMarket.checkout.queues[1] queueLength:vector ETV
attr interpolationmode sample-hold
attr recordingmode vector
attr title "queue length"
vector 2 SuperMarket.checkout.queues[2] queueLength:vector ETV
attr interpolationmode sample-hold
attr recordingmode vector
attr title "queue length"
vector 3 SuperMarket.checkout.queues[3] queueLength:vector ETV
attr interpolationmode sample-hold
attr recordingmode vector
attr title "queue length"
vector 4 SuperMarket.checkout.localSink[1] lifeTime:vector ETV
attr interpolationmode none
attr recordingmode vector
attr title "lifetime of arrived jobs"
attr unit s
vector 5 SuperMarket.checkout.localSink[0] lifeTime:vector ETV
attr interpolationmode none
attr recordingmode vector
attr title "lifetime of arrived jobs"
attr unit s
vector 6 SuperMarket.checkout.localSink[3] lifeTime:vector ETV
attr interpolationmode none
attr recordingmode vector
attr title "lifetime of arrived jobs"
attr unit s
vector 7 SuperMarket.checkout.localSink[2] lifeTime:vector ETV
attr interpolationmode none
attr recordingmode vector
attr title "lifetime of arrived jobs"
attr unit s
1	2071 1124003 0 256313 0 680163.507577839888 32768 0 10825 178836368 1297335139784
0	1126074 1124632 0 257016 0 682236.665789506576 32768 0 10868 180681446 1319025941352
1	2250706 1194553 256316 513434 680184.900264768204 1361954.294813851692 32768 10826 21813 535657622 9090869550120
0	3445259 1194893 257021 515410 682242.665789506576 1367024.484829299555 32768 10865 21441 528360650 8828242653744
2	4640152 1163412 0 580327 0 1539435.648239392491 32768 0 22487 367818328 5513310692296
3	5803564 1163296 0 580437 0 1539744.959627518582 32768 0 22569 369669606 5563722379516
4	6966860 1513909 29 767779 107.176580245205 2034986.176580245205 32768 81 1014366.2388893 16660363484.57 1.1272046962112e+16
5	8480769 1513986 37 769241 116.966220787232 2038752.665789506576 32768 72 1007926.4375701 16614384199.928 1.1167639199786e+16
1	9994755 1209979 513437 770996 1361963.05888699911 2043800.99814905583 32768 21809 32495 890210752 24492482157684
0	11204734 1210022 515416 773095 1367045.979435767502 2049292.21462136789 32768 21437 32455 883829468 24173164192252
0	12414756 952596 773103 978793 2049296.069313036292 2591996.178501684395 25797 32454 41046 948925706 35064189800198
1	13367352 983201 771004 978781 2043842.176580245205 2591942.285745527035 26624 32494 41521 986181310 36710221519468
2	14350553 843339 580330 978788 1539436.606190782235 2591963.496130836635 22851 22488 38334 694762283 21604596579813
3	15193892 824462 580446 978746 1539787.958745045658 2591858.005525637836 22339 22568 37900 674430575 20798279764701
4	16018354 418886 767826 978757 2035115.176580245205 2591882.176580245205 8935 1014366.2060661 1290955.6234609 10326636177.922 1.1991877840912e+16
5	16437240 410798 769290 978790 2038842.665789506576 2591991.665789506576 8762 1007968.4209854 1289063.0048374 10074015052.115 1.1639161299617e+16
6	16848038 398667 53 978737 193.958745045658 2591830.958745045658 8603 186 2112320.9618886 9086189472.5726 1.2776350011618e+16
7	17246705 400581 146 978691 388.347813793871 2591722.347813793871 8642 333 2103190.338139 9079658082.7806 1.2728745405093e+16

